ITEM: TIMESTEP
0
ITEM: NUMBER OF ATOMS
537
ITEM: BOX BOUNDS pp pp pp
-200.487 200.487
-200.487 200.487
-200.487 200.487
ITEM: ATOMS id type x y z c_eng c_cn c_cnt c_cna 
1 1 0.542919 3.02575 -9.81464 -3.53666 9 9.42606 5 
2 1 -0.566175 4.44199 -8.2352 -3.78452 11 5.16628 5 
3 1 0.274667 2.58508 -6.92683 -4.05727 12 4.9903 5 
4 1 -1.0285 4.21504 -5.29927 -4.12135 10 4.87744 5 
5 1 -0.209709 2.20696 -4.20742 -3.99243 10 0.410664 3 
6 1 -1.26547 3.85937 -2.59029 -4.01771 10 0.241619 5 
7 1 -0.638752 1.99003 -1.2366 -4.03166 11 0.141509 3 
8 1 -1.75827 3.6228 0.296721 -4.14419 13 0.28179 5 
9 1 -0.927052 1.51729 1.59026 -3.98979 11 0.889157 5 
10 1 -2.18531 3.375 2.91709 -4.08537 12 4.52081 5 
11 1 -1.33645 1.21535 4.42074 -4.04849 12 0.307786 3 
12 1 -2.36454 2.88461 5.84821 -3.93621 11 5.38846 5 
13 1 -1.8132 0.952714 7.16019 -4.10939 12 4.85843 5 
14 1 -2.94515 2.73103 8.58485 -3.76582 9 5.62497 5 
15 1 -2.41587 0.731778 9.94295 -3.58043 9 11.8705 5 
16 1 -2.0586 3.79121 -10.1767 -3.05036 6 23.253 5 
17 1 -3.23867 5.45084 -8.4822 -3.18374 8 15.3076 5 
18 1 -2.74868 3.67934 -7.18906 -3.88676 11 0.575906 5 
19 1 -3.69658 5.25436 -5.6806 -3.97846 11 5.63283 5 
20 1 -3.01172 3.19897 -4.24271 -3.96312 10 0.422147 5 
21 1 -4.01174 4.98611 -3.01452 -4.05578 10 0.461798 5 
22 1 -3.42191 2.99167 -1.59427 -4.11483 12 0.205446 3 
23 1 -4.31448 4.8173 -0.0196477 -3.95082 11 0.548543 5 
24 1 -3.7856 2.72863 1.22377 -4.05873 11 0.351002 5 
25 1 -4.92757 4.18898 2.85854 -4.03397 12 5.42152 5 
26 1 -3.9913 2.19734 4.06347 -4.0479 11 0.317141 5 
27 1 -5.01739 3.84133 5.67298 -3.97263 11 0.929372 5 
28 1 -4.27198 1.65562 6.84142 -3.90317 11 5.29707 5 
29 1 -5.31972 3.18293 8.30979 -3.27548 8 9.7141 5 
30 1 -4.86702 1.10869 9.81143 -3.04399 6 20.4405 5 
31 1 -5.3923 4.7744 -7.43165 -3.50011 8 11.5881 5 
32 1 -6.5034 6.39754 -5.72711 -3.14286 7 17.7873 5 
33 1 -5.79568 4.45041 -4.81129 -3.88336 9 5.20195 5 
34 1 -6.76203 5.94043 -3.22704 -3.7092 10 4.69759 5 
35 1 -5.94003 4.15209 -1.91465 -3.97602 11 0.59404 5 
36 1 -6.93364 5.58597 -0.404984 -3.87071 12 0.561354 5 
37 1 -6.39072 3.68415 0.998024 -4.05614 12 0.222185 3 
38 1 -7.54473 5.31371 2.53175 -3.8129 11 4.63651 5 
39 1 -6.83781 3.33851 3.75913 -3.8966 11 0.436392 5 
40 1 -7.83664 4.75315 5.33295 -3.17308 7 18.1746 5 
41 1 -7.18465 2.5538 6.57637 -3.38075 7 9.21819 5 
42 1 -8.60129 5.11843 -4.57191 -3.09359 6 18.0234 5 
43 1 -8.47058 4.84657 -2.03695 -3.51604 8 8.22522 5 
44 1 -8.98102 4.5707 0.520865 -3.51967 9 14.2701 5 
45 1 -9.51351 4.08111 3.42753 -3.02402 6 21.1153 5 
46 1 1.2334 5.53384 -9.46339 -3.05347 7 21.9971 5 
47 1 0.178834 7.08762 -8.00344 -3.13413 6 16.7137 5 
48 1 1.09105 5.3101 -6.71792 -4.01829 12 4.50484 5 
49 1 0.0633539 6.94527 -5.05107 -3.99069 10 5.37105 5 
50 1 0.777489 4.86702 -3.66009 -4.1055 11 0.247342 5 
51 1 -0.217328 6.76684 -2.04176 -4.00278 9 0.847583 5 
52 1 0.321982 4.49291 -0.938279 -4.09753 10 0.589652 5 
53 1 -0.809967 6.2179 0.723357 -4.08221 11 0.226887 5 
54 1 -0.204096 4.2796 2.06862 -4.04336 11 0.136773 3 
55 1 -1.29996 5.91036 3.52256 -4.10742 12 0.79589 5 
56 1 -0.582214 3.94679 4.85018 -4.01267 12 0.428139 5 
57 1 -1.37574 5.83938 6.33699 -4.02357 12 5.44291 5 
58 1 -0.866505 3.75592 7.54954 -3.92185 10 0.809548 5 
59 1 -1.49844 5.23712 9.27292 -3.14292 6 14.5112 5 
60 1 -1.25385 2.87659 10.7028 -2.94851 6 25.7929 5 
61 1 -1.67246 6.23916 -6.69907 -3.775 9 4.8539 5 
62 1 -2.36214 7.92164 -5.04586 -3.56097 9 7.97569 5 
63 1 -1.77872 5.94524 -3.74069 -3.98764 10 4.69909 5 
64 1 -2.98365 7.8226 -2.60673 -3.82762 10 4.86947 5 
65 1 -2.36214 5.70426 -1.16804 -4.1446 12 0.249016 5 
66 1 -3.4572 7.3282 0.219734 -4.01856 11 4.55501 5 
67 1 -2.78717 5.41916 1.62956 -3.97549 12 4.20877 5 
68 1 -3.88945 6.90838 3.21341 -3.92239 11 3.92242 5 
69 1 -3.11637 4.77761 4.63085 -4.0198 12 0.97721 5 
70 1 -4.02217 6.79531 5.87788 -3.41053 9 5.49211 5 
71 1 -3.53539 4.99092 7.33582 -3.68366 10 7.40796 5 
72 1 -4.0334 7.31978 -6.70629 -3.04243 6 22.0095 5 
73 1 -4.64368 7.20711 -4.15369 -3.75234 10 4.87893 5 
74 1 -5.92479 8.79777 -2.56944 -3.11231 6 21.6835 5 
75 1 -4.9833 6.77005 -1.62234 -4.05996 12 4.86518 5 
76 1 -5.96569 8.16383 0.214922 -3.54649 10 8.65621 5 
77 1 -5.24835 6.19786 1.43468 -3.84975 10 5.45372 5 
78 1 -6.45729 7.81979 2.88902 -3.26399 8 14.7194 5 
79 1 -5.76079 5.76039 4.45362 -3.78245 11 5.72029 5 
80 1 -5.8871 5.45726 7.13734 -2.9661 6 23.648 5 
81 1 -7.75243 7.72637 -1.42546 -3.01629 5 23.1362 5 
82 1 -8.07241 7.18345 0.931864 -3.03703 6 19.1167 5 
83 1 1.96838 7.93929 -5.99256 -3.47537 9 8.60868 5 
84 1 1.11471 9.66949 -4.36861 -3.15741 6 18.0019 5 
85 1 1.68209 7.59084 -3.33249 -3.9561 11 5.1619 5 
86 1 0.493198 9.32024 -1.54575 -3.66876 10 12.6219 5 
87 1 1.28673 7.17222 -0.216125 -3.99518 10 0.5238 5 
88 1 0.158786 8.73562 1.0714 -3.92 11 5.44492 5 
89 1 0.889761 6.82859 2.44795 -4.06815 12 0.337078 5 
90 1 -0.0898182 8.61252 3.67132 -3.76542 11 5.57144 5 
91 1 0.645568 6.84823 5.15612 -3.96612 11 4.268 5 
92 1 -0.522068 8.53794 6.32978 -3.25759 8 13.9996 5 
93 1 0.193269 6.63732 7.96094 -3.41305 8 9.65424 5 
94 1 -0.244594 8.90643 -6.44125 -2.95502 5 24.2986 5 
95 1 -0.842847 8.8932 -3.39104 -3.62205 9 5.90987 5 
96 1 -2.00808 10.2709 -1.81641 -3.23657 8 14.2353 5 
97 1 -1.39258 8.25044 -0.685265 -3.92505 11 0.223392 3 
98 1 -2.60954 9.8812 0.855679 -3.50345 9 10.2336 5 
99 1 -2.0153 7.86511 2.06341 -3.99168 12 5.28359 5 
100 1 -2.53456 9.91087 3.69177 -3.08256 6 22.4232 5 
101 1 -2.17448 7.74401 4.8185 -3.68076 8 6.12722 5 
102 1 -2.29197 7.45491 7.904 -2.96238 6 28.8013 5 
103 1 -3.60917 9.73485 -3.44477 -2.92467 6 22.4563 5 
104 1 -4.22025 9.40685 -0.764657 -3.40655 8 11.4198 5 
105 1 -4.45963 9.03475 2.27914 -3.44191 8 8.60805 5 
106 1 -4.96967 8.51388 4.73991 -2.95316 5 24.8533 5 
107 1 2.93433 9.98385 -2.77233 -3.05512 7 17.2722 5 
108 1 2.28756 9.80301 -0.127911 -3.56589 10 9.46279 5 
109 1 1.94432 9.66307 2.57666 -3.54441 8 9.05961 5 
110 1 1.40421 9.62939 5.11122 -3.08349 6 17.6214 5 
111 1 -0.239782 11.0091 0.00601461 -3.01333 6 21.5112 5 
112 1 -0.418617 10.6928 2.46158 -3.01429 6 19.4164 5 
113 1 -4.72428 -6.22111 -7.13533 -3.15951 7 15.3114 5 
114 1 -3.92273 -8.35429 -5.56111 -2.99124 6 14.4495 5 
115 1 -5.29446 -6.44886 -4.47768 -3.75695 10 8.5301 5 
116 1 -4.76878 -8.78213 -3.05823 -3.41262 8 10.3132 5 
117 1 -5.52662 -6.98657 -1.53012 -3.85772 11 0.35011 5 
118 1 -4.94481 -9.10692 -0.338422 -3.36493 7 10.5725 5 
119 1 -6.00017 -7.42163 1.17084 -3.68789 9 5.02158 5 
120 1 -5.0234 -9.4285 2.1404 -3.07016 6 20.1732 5 
121 1 -6.31374 -7.81699 3.72986 -3.23852 7 17.1034 5 
122 1 -7.78651 -5.61083 -4.42836 -3.22512 8 14.5482 5 
123 1 -7.06075 -7.44809 -3.27475 -3.04924 7 16.1503 5 
124 1 -8.11571 -5.78846 -1.89781 -3.51978 10 5.00006 5 
125 1 -7.65098 -8.1502 -0.700502 -3.03386 5 26.9214 5 
126 1 -8.728 -6.40997 0.699299 -3.16499 6 19.0035 5 
127 1 -3.28678 -3.07908 -9.82908 -3.03175 5 22.3429 5 
128 1 -2.81003 -5.39671 -8.1502 -3.46578 7 9.58665 5 
129 1 -3.75031 -3.53298 -6.86828 -3.9141 10 0.511441 3 
130 1 -3.13321 -5.48011 -5.50778 -4.06962 10 0.406072 3 
131 1 -4.22907 -3.85055 -3.86419 -4.11676 13 0.25273 5 
132 1 -3.60636 -5.93722 -2.57024 -3.99549 10 0.152505 5 
133 1 -4.7327 -4.39147 -1.12393 -4.05916 13 4.59199 5 
134 1 -3.93235 -6.45247 0.28389 -4.06234 10 4.99602 5 
135 1 -5.04345 -4.55667 1.66525 -4.03072 11 0.642557 5 
136 1 -4.2391 -6.63211 2.85133 -3.96967 11 0.436323 5 
137 1 -5.41074 -5.104 4.29964 -4.04673 11 5.89526 5 
138 1 -5.01258 -7.27728 5.99175 -3.27989 7 9.26815 5 
139 1 -5.80891 -5.33336 7.15899 -3.17941 6 14.8594 5 
140 1 -5.04866 -4.44359 -8.65182 -2.9972 5 22.4279 5 
141 1 -6.28246 -2.61555 -7.04311 -3.50895 9 5.4234 5 
142 1 -5.85422 -4.45763 -5.78605 -3.70157 9 5.35881 5 
143 1 -6.81936 -3.03136 -4.22065 -4.07059 10 0.236299 5 
144 1 -6.11044 -4.95524 -2.87017 -3.87852 10 0.337683 5 
145 1 -7.12932 -3.2515 -1.21014 -4.12318 12 4.78604 5 
146 1 -6.54309 -5.56271 -0.0509237 -3.92195 10 1.41947 5 
147 1 -7.69148 -3.67974 1.41303 -3.90862 11 0.325775 5 
148 1 -6.9569 -5.58918 2.66086 -3.7275 10 5.09601 5 
149 1 -8.00705 -4.04021 4.02859 -3.49494 10 4.81092 5 
150 1 -7.47817 -5.99095 5.30609 -3.05533 7 21.7404 5 
151 1 -8.55919 -3.66611 -5.99416 -2.92647 5 33.2661 5 
152 1 -9.49386 -1.83766 -4.39267 -3.25415 7 15.2782 5 
153 1 -9.0139 -3.88905 -3.03016 -3.36042 8 11.0111 5 
154 1 -9.86877 -2.31362 -1.77511 -3.38096 8 5.67475 5 
155 1 -9.22481 -4.32651 -0.367292 -3.5165 9 4.87535 5 
156 1 -10.5356 -2.45757 1.00604 -3.16309 7 20.5848 5 
157 1 -9.56002 -4.58153 2.09308 -2.99905 7 18.2861 5 
158 1 -1.43027 -2.03294 -10.4121 -2.99789 6 18.8877 5 
159 1 -2.42629 -0.342833 -9.07043 -3.72598 10 4.25436 5 
160 1 -1.78193 -2.5526 -7.68226 -4.05555 12 0.555179 5 
161 1 -2.72462 -0.807562 -6.30371 -4.08206 11 0.689307 5 
162 1 -2.12917 -3.0041 -5.03864 -4.07339 13 0.405747 5 
163 1 -3.11156 -1.30156 -3.37059 -4.11422 12 0.329291 5 
164 1 -2.5931 -3.17652 -1.98201 -3.98574 12 0.739764 5 
165 1 -3.57949 -1.59949 -0.751826 -3.98541 9 0.417854 5 
166 1 -2.89062 -3.69939 0.703709 -4.15805 12 0.334021 5 
167 1 -3.94719 -1.93831 2.16325 -3.80258 10 0.396403 3 
168 1 -3.375 -4.07189 3.42712 -4.04825 12 0.126015 3 
169 1 -4.46244 -2.3886 4.86061 -4.01468 11 0.2401 3 
170 1 -3.86659 -4.26235 6.14733 -3.94585 11 0.251318 5 
171 1 -4.85419 -2.49646 7.76847 -3.71117 10 9.80286 5 
172 1 -4.20702 -4.65531 9.42169 -2.86206 6 31.3497 5 
173 1 -5.09558 0.607877 -9.19874 -3.25709 8 11.9316 5 
174 1 -4.37463 -1.65562 -8.17987 -3.76907 9 6.1105 5 
175 1 -5.38909 -0.0565373 -6.55993 -3.99607 12 4.58378 5 
176 1 -4.68538 -1.92427 -5.28043 -4.08732 11 0.22905 3 
177 1 -5.91276 -0.328799 -3.73467 -4.09003 9 0.0835724 3 
178 1 -5.24474 -2.23423 -2.37737 -4.04346 12 0.310941 3 
179 1 -6.34782 -0.768667 -0.919032 -4.04293 10 0.220829 5 
180 1 -5.4737 -2.66928 0.435458 -3.97868 12 0.743906 5 
181 1 -6.69226 -0.913419 1.67206 -4.04995 12 4.70274 5 
182 1 -6.01862 -2.8806 3.1308 -4.07032 11 0.426914 3 
183 1 -7.21873 -1.36371 4.42355 -3.93417 12 4.22875 5 
184 1 -6.63572 -3.42231 5.79367 -3.78343 10 9.47535 5 
185 1 -7.46052 -1.7278 7.38273 -3.22733 6 15.1518 5 
186 1 -7.00141 -0.595446 -8.26608 -3.07109 7 22.8981 5 
187 1 -8.3968 1.01647 -6.56194 -3.1461 6 15.6269 5 
188 1 -7.39998 -0.921037 -5.64531 -3.74061 9 5.5432 5 
189 1 -8.57483 0.553745 -4.18657 -3.76576 10 8.61817 5 
190 1 -7.906 -1.45914 -2.70016 -3.99708 11 0.355722 3 
191 1 -8.99465 0.427438 -1.21896 -3.80962 10 0.206222 5 
192 1 -8.42567 -1.6472 0.092625 -4.02651 12 0.361374 5 
193 1 -9.38119 0.0380925 1.54455 -3.74334 11 5.55788 5 
194 1 -8.86353 -1.9772 2.81925 -3.80505 10 6.48148 5 
195 1 -9.66989 -0.289102 4.32611 -3.2055 8 15.9191 5 
196 1 -9.07244 -2.36575 5.67258 -3.05868 6 25.3434 5 
197 1 -10.5685 -0.0705714 -2.88701 -3.07338 6 18.8596 5 
198 1 -11.1242 -0.330002 -0.176429 -3.02758 6 25.1571 5 
199 1 -0.641558 0.542117 -10.2124 -3.37497 8 8.55187 5 
200 1 -1.42947 1.98402 -8.6041 -3.92461 10 5.51563 5 
201 1 -0.599857 0.00240584 -7.17503 -3.97588 12 1.03522 5 
202 1 -1.84969 1.70294 -5.73232 -4.0691 11 0.277274 5 
203 1 -0.958328 -0.477159 -4.48169 -4.05658 13 0.989701 5 
204 1 -2.21137 1.1949 -3.08068 -4.10651 13 0.342535 5 
205 1 -1.46596 -0.581011 -1.66925 -4.02845 13 0.20501 5 
206 1 -2.68212 1.1095 -0.284291 -4.09516 11 0.268562 5 
207 1 -2.04777 -0.828813 1.02208 -4.10865 12 0.458249 3 
208 1 -2.90265 0.778692 2.47361 -4.04257 13 0.887454 5 
209 1 -2.43351 -1.43188 3.73668 -3.84246 12 5.05605 5 
210 1 -3.28718 0.0781899 5.16094 -3.95384 11 0.644536 3 
211 1 -2.68773 -1.76068 6.49698 -4.01976 12 0.826253 3 
212 1 -3.83251 -0.211714 8.07321 -3.81622 10 4.12732 5 
213 1 -3.13882 -2.00607 9.48223 -3.4904 9 9.73665 5 
214 1 -3.0875 1.50566 -10.53 -3.05709 6 23.7993 5 
215 1 -4.33052 2.90786 -8.91646 -3.49551 9 9.84043 5 
216 1 -3.51935 1.18809 -7.53951 -3.83261 9 0.435723 5 
217 1 -4.76397 2.69455 -6.16337 -4.05295 12 0.352031 5 
218 1 -3.86619 0.652385 -4.68217 -4.05571 11 0.331293 5 
219 1 -4.98531 2.37136 -3.32327 -4.06655 12 4.68121 5 
220 1 -4.42595 0.343635 -1.95475 -4.11016 13 0.440536 5 
221 1 -5.48492 2.06622 -0.598654 -4.06521 10 4.92772 5 
222 1 -4.69059 0.046914 0.798339 -4.14798 13 0.117232 3 
223 1 -5.65774 1.59026 2.38138 -4.13011 12 5.22804 5 
224 1 -4.92837 -0.528083 3.41309 -3.89206 12 4.00176 5 
225 1 -6.0114 1.18889 4.91434 -4.05793 10 4.84051 5 
226 1 -5.3109 -0.712531 6.25078 -4.00641 11 5.13047 5 
227 1 -6.52064 0.929458 8.02068 -3.40809 7 5.37083 5 
228 1 -5.83858 -1.17967 9.27533 -2.96621 6 20.8934 5 
229 1 -6.59562 2.0574 -7.85388 -3.43823 8 10.4392 5 
230 1 -7.53029 3.83171 -6.52224 -3.44526 7 13.0749 5 
231 1 -6.588 1.62755 -5.07192 -3.98428 11 4.78542 5 
232 1 -7.44288 3.19376 -3.65688 -3.86159 11 4.34393 5 
233 1 -7.01344 1.25184 -2.27874 -4.04782 11 0.341803 5 
234 1 -7.79854 2.98686 -0.813175 -3.94912 13 4.72895 5 
235 1 -7.46052 0.874123 0.389747 -3.95941 12 4.70984 3 
236 1 -8.37033 2.71259 1.94432 -3.91736 11 0.462105 5 
237 1 -7.84385 0.511242 3.17612 -3.86461 11 0.720802 5 
238 1 -8.73321 2.17969 4.63245 -3.4913 9 9.14719 5 
239 1 -8.00865 0.24299 5.89873 -3.49298 9 8.17595 5 
240 1 -9.31222 2.77995 -5.02741 -3.11315 6 16.1039 5 
241 1 -9.78016 2.30841 -2.63199 -3.56341 8 10.023 5 
242 1 -10.6888 4.05264 -1.01607 -2.62016 4 49.3973 5 
243 1 -9.9642 2.1392 0.0826006 -3.54511 9 9.66616 5 
244 1 -10.4289 1.79757 2.93433 -3.07764 5 23.8934 5 
245 1 9.87398 0.339625 -4.45362 -3.22503 7 19.165 5 
246 1 10.3953 -1.66083 -3.07066 -3.09678 6 19.3421 5 
247 1 9.31583 0.0224545 -1.72218 -3.72667 10 4.80007 5 
248 1 10.0917 -1.94232 -0.287097 -3.51806 9 16.0841 5 
249 1 8.83787 -0.22214 1.3982 -3.86134 11 4.5034 5 
250 1 9.51311 -2.3469 2.70537 -3.45574 7 9.73218 5 
251 1 8.1915 -0.755435 4.04021 -3.7892 11 7.65337 5 
252 1 9.24405 -2.54779 5.33536 -3.01314 6 23.6665 5 
253 1 8.06599 -1.02689 6.77887 -3.23189 7 15.892 5 
254 1 7.40519 1.58786 -7.72116 -3.21415 6 16.5144 5 
255 1 8.29535 -0.338021 -6.19906 -3.48812 9 10.7904 5 
256 1 7.15498 1.21455 -4.7331 -3.96627 12 0.386742 3 
257 1 7.74401 -0.587427 -3.5013 -3.98647 11 0.339441 5 
258 1 6.88472 0.968352 -1.76749 -4.12063 12 8.1631 5 
259 1 7.46293 -0.970357 -0.550938 -3.97553 10 0.479382 5 
260 1 6.34702 0.686467 1.00364 -4.08218 12 0.416017 5 
261 1 6.70268 -1.27109 2.27713 -3.98771 10 0.780431 5 
262 1 5.74275 0.475956 3.8277 -4.02119 11 5.50116 5 
263 1 6.30772 -1.63237 5.1445 -4.01021 11 0.647422 5 
264 1 5.2263 -0.0886153 6.80533 -3.88372 11 0.653533 5 
265 1 5.88429 -2.057 8.03271 -3.43634 7 10.0649 5 
266 1 4.47487 -0.433453 10.1583 -3.00837 5 27.8554 5 
267 1 5.81372 0.711328 -9.5925 -3.00103 5 23.1294 5 
268 1 5.10119 2.66126 -7.99061 -3.73217 10 4.67718 5 
269 1 5.48372 0.741802 -6.58359 -3.94664 9 0.482302 3 
270 1 4.62524 2.3457 -5.00897 -4.04301 12 0.510423 3 
271 1 5.21146 0.482773 -3.6236 -4.04062 11 0.382254 3 
272 1 4.1998 2.16325 -2.19373 -3.95449 11 4.92771 5 
273 1 4.60839 -0.0396964 -0.753029 -4.09078 11 0.592571 5 
274 1 3.63764 1.59267 0.661607 -3.92561 11 0.408797 3 
275 1 4.22346 -0.510039 2.10511 -4.1214 11 4.70864 5 
276 1 3.39866 1.45554 3.65327 -3.95028 11 5.33767 5 
277 1 3.79201 -0.787112 4.76999 -4.04489 12 6.25153 5 
278 1 2.74747 0.907404 6.27324 -4.1009 13 5.88565 5 
279 1 3.30002 -0.921037 7.85227 -3.585 10 6.00917 5 
280 1 2.39863 0.610683 8.96377 -3.51955 11 6.96781 5 
281 1 2.51852 -1.61633 10.7357 -3.01794 6 20.9741 5 
282 1 3.20659 2.01329 -9.5087 -3.50391 7 16.214 5 
283 1 2.11955 3.68976 -8.16142 -3.77694 9 0.153724 5 
284 1 2.77795 1.80799 -6.73235 -4.11685 12 4.99118 5 
285 1 1.81 3.26473 -5.23431 -3.95695 10 0.163984 5 
286 1 2.63039 1.34567 -4.00693 -4.05204 12 0.449818 5 
287 1 1.45634 2.77394 -2.39782 -4.06365 10 5.08157 5 
288 1 1.99685 1.11431 -0.875326 -3.94679 12 4.86614 5 
289 1 0.851268 2.67009 0.560161 -4.04103 12 0.396639 3 
290 1 1.59347 0.713734 1.87937 -4.17887 13 0.217626 3 
291 1 0.54773 2.30079 3.38061 -4.0715 12 0.260525 3 
292 1 1.38697 0.0661607 4.6096 -3.94182 11 5.14793 3 
293 1 0.265846 1.86894 6.08278 -4.12339 12 0.259299 3 
294 1 0.756638 -0.0753831 7.46573 -4.01427 11 0.402161 3 
295 1 -0.278677 1.61753 8.9329 -3.86307 10 0.606643 5 
296 1 0.23858 -0.458714 10.0155 -3.55077 9 11.6397 5 
297 1 10.4911 2.64041 -1.11832 -3.0431 5 26.5751 5 
298 1 10.8828 0.303537 0.264643 -3.06238 6 20.9866 5 
299 1 9.73645 2.44915 2.02732 -3.34768 7 14.5676 5 
300 1 10.6791 0.169612 2.92631 -2.93717 5 26.3663 5 
301 1 9.24205 2.00487 4.71385 -3.16423 6 18.6919 5 
302 1 9.02993 2.21498 -5.83858 -3.0729 6 19.7797 5 
303 1 8.05477 3.89306 -4.47848 -3.4337 8 6.21617 5 
304 1 8.81541 2.00006 -2.94676 -3.8084 9 4.95401 5 
305 1 7.56678 3.50812 -1.47599 -3.93204 10 0.684066 5 
306 1 8.564 1.66484 -0.0481169 -3.99789 10 1.55708 5 
307 1 7.13493 3.39625 1.32722 -4.05032 13 0.457007 5 
308 1 7.91763 1.38136 2.83328 -3.88083 8 0.738083 5 
309 1 6.669 2.97042 4.36741 -3.92366 11 0.658571 5 
310 1 7.23718 0.999628 5.64451 -3.70706 9 4.67974 5 
311 1 6.31775 2.51731 7.33903 -3.4241 7 11.8644 5 
312 1 6.51823 0.221739 8.6446 -2.95296 6 17.9229 5 
313 1 5.63248 5.13367 -7.50623 -3.26525 8 14.5089 5 
314 1 6.53387 3.25831 -6.12528 -3.74206 10 5.18937 5 
315 1 5.31411 4.87344 -4.68137 -3.89809 10 4.66157 3 
316 1 6.08759 3.10715 -3.22664 -4.00487 11 0.670289 3 
317 1 4.83695 4.46444 -1.74023 -3.93873 11 4.27537 5 
318 1 5.49254 2.49606 -0.379722 -3.93297 11 0.984443 5 
319 1 4.51537 4.1577 1.46676 -3.95009 12 5.30801 5 
320 1 5.187 2.21017 2.41587 -3.86675 10 0.842875 5 
321 1 4.22987 4.08753 4.15369 -4.00491 12 4.33503 5 
322 1 4.7768 2.16566 5.53986 -3.9546 11 0.816704 5 
323 1 3.6629 3.74109 6.99259 -3.92901 9 0.702136 3 
324 1 4.2383 1.89981 8.30658 -3.68715 9 9.83661 5 
325 1 3.07226 3.37981 9.86476 -3.19627 6 20.0535 5 
326 1 3.97606 4.80928 -9.2212 -2.99911 5 24.2642 5 
327 1 3.14724 6.41157 -7.5756 -3.46199 8 10.5248 5 
328 1 3.66971 4.26877 -6.33619 -4.07428 12 5.093 5 
329 1 2.53857 5.93522 -4.90351 -4.02617 12 5.01293 5 
330 1 3.42111 3.92032 -3.56426 -4.01614 13 0.324536 5 
331 1 2.49406 5.59399 -1.91826 -4.09181 10 9.64457 5 
332 1 3.03738 3.56586 -0.41982 -4.04209 12 0.709443 5 
333 1 1.91826 5.18179 0.957125 -4.09234 11 0.105116 3 
334 1 2.52493 3.22624 2.3894 -4.08063 13 5.01834 3 
335 1 1.44311 4.84938 3.88865 -4.00175 10 0.884367 5 
336 1 2.27753 2.92831 4.96366 -3.94273 10 4.85563 3 
337 1 1.03812 4.78202 6.53989 -4.04363 11 5.70518 5 
338 1 1.70093 2.64162 7.86751 -4.0412 10 0.207123 3 
339 1 0.669627 4.1585 9.44615 -3.51384 8 9.14736 5 
340 1 1.22578 1.86453 10.6687 -3.09906 6 17.2602 5 
341 1 9.50108 4.49331 -2.43111 -3.10593 7 18.3691 5 
342 1 8.71557 6.31293 -1.01126 -3.13856 6 21.7669 5 
343 1 8.98382 4.31568 0.268653 -3.48442 9 8.48403 5 
344 1 8.14619 5.93201 1.78634 -3.46231 8 8.72808 5 
345 1 8.73843 4.24672 3.22143 -3.42983 7 11.4078 5 
346 1 7.99502 6.18302 4.62123 -2.94825 6 27.7705 5 
347 1 8.08404 3.85777 6.02263 -3.011 5 18.0065 5 
348 1 7.31457 5.6814 -5.78726 -3.05728 6 22.3954 5 
349 1 6.26762 7.70873 -4.33132 -3.07867 6 20.6428 5 
350 1 7.08922 5.63248 -2.87779 -3.8761 10 0.510136 5 
351 1 5.97291 6.99178 -1.22097 -3.59337 9 4.73815 5 
352 1 6.57196 5.26198 0.00200487 -3.97184 10 4.96034 5 
353 1 5.42718 6.92803 1.68329 -3.9113 9 5.23769 5 
354 1 6.12568 5.03423 2.9215 -4.02893 11 5.25912 5 
355 1 4.96526 6.74158 4.53782 -3.72246 9 8.55135 5 
356 1 5.66576 4.94321 5.67699 -3.64346 8 9.23881 5 
357 1 4.38024 6.53868 7.4084 -3.13354 6 16.608 5 
358 1 5.023 4.72949 8.54516 -2.90325 5 22.0528 5 
359 1 4.70784 6.71311 -5.8045 -3.45082 9 8.16875 5 
360 1 3.66009 8.39519 -4.21825 -3.44581 10 7.88709 5 
361 1 4.5278 6.49538 -3.03217 -4.03943 12 5.66222 5 
362 1 3.27475 8.00304 -1.46115 -3.90402 10 0.631551 5 
363 1 4.033 6.12688 -0.194472 -4.02166 11 0.4456 5 
364 1 3.04941 7.78571 1.41143 -4.0377 11 8.6151 5 
365 1 3.46923 5.82254 2.77394 -3.95619 12 0.434161 5 
366 1 2.61154 7.77849 3.88263 -3.8317 11 4.34769 5 
367 1 2.82526 5.90514 5.46848 -3.96309 11 4.96665 5 
368 1 1.99244 7.55435 6.96732 -3.28337 8 6.1737 5 
369 1 2.48764 5.43881 8.40642 -3.52727 8 5.13248 5 
370 1 7.3687 7.9858 0.611084 -3.12423 6 17.7008 5 
371 1 7.13212 7.84746 3.09592 -3.0485 6 18.0239 5 
372 1 5.32734 9.05199 -2.56663 -3.12131 7 22.4267 5 
373 1 4.8558 8.75567 0.200086 -3.5587 9 9.17953 5 
374 1 4.01816 10.6054 1.53613 -2.6809 4 46.9629 5 
375 1 4.7768 8.92328 3.09111 -3.37168 6 12.108 5 
376 1 3.7479 8.46576 5.89271 -3.00911 6 20.487 5 
377 1 -3.83692 -10.4273 -1.69412 -2.67547 5 34.265 5 
378 1 2.90867 -9.61335 -3.88744 -3.23228 7 19.8174 5 
379 1 2.5534 -9.87439 -1.17445 -3.44296 8 9.72293 5 
380 1 2.15123 -10.2653 1.69732 -3.17166 6 17.3508 5 
381 1 0.490792 -8.45373 -6.51543 -3.15615 7 18.6986 5 
382 1 0.23858 -8.48742 -4.11439 -3.75347 10 5.12568 5 
383 1 0.881742 -10.5773 -2.75389 -3.07694 7 19.8807 5 
384 1 -0.092625 -8.91445 -1.36692 -3.91461 12 4.47756 5 
385 1 0.335615 -11.0424 -0.186854 -3.01089 6 23.3565 5 
386 1 -0.390549 -9.2204 1.61312 -3.83837 11 5.29821 5 
387 1 -0.90981 -9.72562 4.3237 -3.15059 6 19.9026 5 
388 1 -2.07544 -7.34544 -6.78969 -3.5059 8 10.7429 5 
389 1 -1.7286 -9.37638 -5.36182 -3.05449 6 18.6611 5 
390 1 -2.54819 -7.57119 -4.04863 -3.81035 11 0.492762 5 
391 1 -1.81401 -9.72121 -2.97523 -3.48106 8 10.5435 5 
392 1 -2.69695 -8.07281 -1.235 -4.07697 13 8.98529 5 
393 1 -1.88137 -10.0753 -0.256623 -3.43069 7 8.51641 5 
394 1 -3.0466 -8.32101 1.40782 -3.83719 11 4.38681 5 
395 1 -2.48163 -10.2689 2.56383 -3.06263 6 21.929 5 
396 1 -3.60315 -8.52872 4.27518 -3.46516 8 9.74867 5 
397 1 6.80252 -7.92766 -2.78877 -3.16986 6 19.2582 5 
398 1 6.22071 -8.00625 -0.135529 -3.521 10 9.40889 5 
399 1 5.69704 -8.23761 2.6352 -3.28322 8 11.4575 5 
400 1 4.35819 -6.29649 -5.91958 -3.53441 9 5.22477 5 
401 1 5.106 -8.3992 -4.78843 -2.97558 5 22.3454 5 
402 1 3.89546 -7.23878 -3.21501 -3.87995 10 7.13523 5 
403 1 4.776 -8.82865 -1.84889 -3.39332 7 10.0719 5 
404 1 3.65207 -7.09363 -0.612287 -3.97698 11 4.14644 3 
405 1 4.13725 -9.19353 0.635143 -3.532 8 9.15314 5 
406 1 3.14965 -7.60167 2.31562 -4.05262 10 5.4246 5 
407 1 3.73146 -9.70517 3.46682 -2.98605 5 27.8276 5 
408 1 2.65725 -7.79734 5.24755 -3.41489 8 5.13346 5 
409 1 1.80599 -5.26399 -9.16466 -3.17952 6 17.7358 5 
410 1 2.71018 -7.28129 -7.58883 -3.05611 6 21.5641 5 
411 1 1.63437 -5.46487 -6.26722 -3.99317 12 4.61742 5 
412 1 2.24465 -7.50944 -5.21066 -3.74649 9 4.96768 5 
413 1 1.16804 -6.04789 -3.5418 -3.93837 11 5.24858 5 
414 1 1.91786 -8.0283 -2.29838 -3.85786 10 0.334676 3 
415 1 -1.42065 -1.18167 11.3692 -2.61744 4 44.9048 5 
416 1 -0.721753 -3.03337 9.80662 -3.53595 7 17.5659 5 
417 1 -1.32963 -1.10589 8.31339 -3.93089 11 3.86063 3 
418 1 -0.210511 -2.80161 6.97133 -4.10109 11 0.283054 3 
419 1 -0.627524 -0.791523 5.77002 -4.06524 13 4.27874 5 
420 1 0.472748 -2.40945 4.25393 -4.02073 12 5.23908 5 
421 1 -0.340427 -0.343234 2.96079 -4.0598 13 0.314819 5 
422 1 0.680052 -1.9367 1.4423 -4.03654 11 0.276954 5 
423 1 0.092625 0.0517256 -0.0429042 -4.01516 12 0.425218 3 
424 1 1.19851 -1.59548 -1.47157 -4.03471 11 0.168566 3 
425 1 0.533295 0.472347 -2.69094 -4.09628 11 4.75921 5 
426 1 1.66525 -1.28873 -4.19699 -4.04859 12 0.291496 5 
427 1 0.83964 0.613089 -5.60481 -3.92383 9 0.29712 5 
428 1 1.98522 -1.09145 -7.1626 -4.1223 11 0.166682 5 
429 1 1.2747 0.900187 -8.6446 -4.00015 11 1.24213 5 
430 1 2.28315 -0.676844 -10.0352 -3.41211 6 11.7755 5 
431 1 1.5221 1.16403 -11.2902 -2.71824 5 45.6211 5 
432 1 0.797938 -6.56154 -0.75343 -3.9044 10 4.73661 5 
433 1 1.68128 -8.30417 0.551339 -3.96011 10 5.22442 5 
434 1 0.425032 -6.6281 2.12677 -4.04316 11 0.27267 3 
435 1 1.25344 -8.6454 3.53619 -3.75732 9 4.27792 5 
436 1 -0.092625 -6.95048 4.92837 -3.94604 10 0.285134 5 
437 1 0.346442 -8.53834 6.34341 -2.93736 6 16.2249 5 
438 1 -0.771073 -7.21873 7.83583 -3.14883 7 15.8231 5 
439 1 -0.71614 -4.15008 -9.1787 -3.55164 10 9.51978 5 
440 1 -0.045711 -6.26161 -7.84265 -3.53576 7 10.0283 5 
441 1 -1.06619 -4.55386 -6.3795 -4.04191 11 0.482658 5 
442 1 -0.515252 -6.64133 -5.08676 -3.96783 11 5.73318 5 
443 1 -1.71336 -4.89268 -3.56706 -4.03453 11 0.648354 5 
444 1 -0.896578 -6.80373 -2.4303 -4.01016 12 0.776873 5 
445 1 -2.06782 -5.43921 -0.828813 -4.00061 12 0.786252 5 
446 1 -1.0309 -7.34825 0.311156 -3.94527 10 5.18761 3 
447 1 -2.27072 -5.62045 2.01249 -4.0001 11 0.500597 3 
448 1 -1.69492 -7.83704 3.2507 -3.87078 11 4.62882 3 
449 1 -2.84491 -6.11124 4.74031 -4.10722 12 4.42625 5 
450 1 -2.1424 -7.96134 6.03346 -3.44252 8 9.67656 5 
451 1 -3.17291 -6.31334 7.43245 -3.431 10 13.932 5 
452 1 7.98059 -4.91193 -5.19622 -3.245 7 15.8891 5 
453 1 7.54232 -5.15733 -2.40143 -3.69083 10 5.37279 5 
454 1 8.27089 -7.02627 -1.15601 -3.07087 6 21.4674 5 
455 1 6.93685 -5.34218 0.400974 -3.76911 12 0.934069 5 
456 1 7.79293 -7.39597 1.45754 -3.06637 6 19.1997 5 
457 1 6.68223 -5.98333 3.43595 -3.66218 9 4.17083 5 
458 1 6.31293 -6.26682 6.19786 -3.08662 6 16.7525 5 
459 1 5.57113 -3.64205 -8.40883 -3.25996 8 13.4644 5 
460 1 6.54791 -5.54306 -7.07839 -2.97313 5 26.9544 5 
461 1 5.30449 -3.89987 -5.60882 -4.13704 13 6.06299 5 
462 1 5.95647 -5.98935 -4.10357 -3.80406 10 4.5232 5 
463 1 4.75836 -4.2808 -2.81805 -4.02638 11 0.350162 5 
464 1 5.4749 -6.03947 -1.42546 -3.9549 11 0.596204 5 
465 1 4.30726 -4.50695 -0.141544 -4.05621 13 4.50071 3 
466 1 5.03303 -6.35464 1.37414 -3.9538 10 4.65655 5 
467 1 3.78199 -4.97849 2.82566 -3.98193 10 5.23339 5 
468 1 4.55547 -7.0828 4.44319 -3.58761 8 4.16917 5 
469 1 3.58631 -5.32173 5.6826 -3.89027 10 0.287384 5 
470 1 4.45843 -7.13613 7.09042 -2.97439 6 22.53 5 
471 1 3.31445 -5.55509 8.78815 -3.10857 6 18.1996 5 
472 1 3.11837 -2.67209 -8.7693 -3.7197 8 4.59781 5 
473 1 3.71262 -4.74994 -7.49701 -3.68222 8 4.70883 5 
474 1 2.56583 -3.14324 -5.67458 -4.02631 12 4.13919 5 
475 1 3.13441 -4.94481 -4.4063 -3.93194 12 0.829436 5 
476 1 2.23543 -3.19897 -3.00971 -4.01428 13 4.88942 5 
477 1 2.6777 -5.2712 -1.66805 -4.07342 11 6.05672 5 
478 1 1.66124 -3.53098 -0.216125 -4.02322 13 0.332267 5 
479 1 2.29518 -5.5182 1.0305 -4.14494 11 0.39043 5 
480 1 1.09867 -3.95962 2.54859 -3.87531 11 0.978363 5 
481 1 1.8938 -5.88269 3.91551 -4.04848 11 4.4517 3 
482 1 0.819591 -4.39227 5.45405 -4.01489 11 0.542018 5 
483 1 1.53092 -6.26081 6.8747 -3.7788 9 5.41313 5 
484 1 0.439868 -4.66573 8.35429 -3.75731 9 6.0864 5 
485 1 1.24061 -3.23706 -10.2906 -3.05068 6 22.0338 5 
486 1 0.322383 -1.59628 -8.82464 -3.88338 10 5.0999 5 
487 1 1.06138 -3.55784 -7.63615 -3.93622 10 0.554459 5 
488 1 0.0449091 -2.14922 -5.98574 -4.09386 11 0.674272 5 
489 1 0.449492 -4.14046 -4.49452 -3.96287 12 1.59295 5 
490 1 -0.420622 -2.29718 -3.15887 -4.09483 12 0.23839 5 
491 1 0.000801948 -4.35939 -1.75145 -4.12314 13 8.27335 5 
492 1 -0.842847 -2.5939 -0.474753 -4.03209 11 0.526171 5 
493 1 -0.365688 -4.79846 0.859287 -4.08498 13 5.69147 5 
494 1 -1.34046 -2.91348 2.49125 -4.04771 12 5.17639 5 
495 1 -0.552141 -5.01578 3.4584 -3.80427 10 4.48058 5 
496 1 -1.85811 -3.41911 5.03744 -4.01767 11 4.41229 5 
497 1 -1.33244 -5.20705 6.4641 -3.9848 11 0.56302 5 
498 1 -2.38539 -3.71462 8.00865 -3.82404 11 0.582 5 
499 1 -2.0169 -5.62446 9.18511 -2.92164 6 16.7983 5 
500 1 10.4273 -4.12522 1.20613 -2.69511 5 44.7107 5 
501 1 8.84428 -2.32004 -4.98531 -3.50414 8 10.2772 5 
502 1 9.64503 -4.01896 -3.31084 -3.07861 6 18.3888 5 
503 1 8.43288 -2.52854 -1.92868 -3.79885 11 0.314964 5 
504 1 9.15303 -4.58514 -0.673636 -3.51783 9 10.3993 5 
505 1 7.91402 -2.77274 0.887756 -4.07641 14 0.715868 3 
506 1 8.317 -5.0222 2.16726 -3.43324 7 11.4992 5 
507 1 7.574 -3.2118 3.71302 -3.93761 12 4.22404 5 
508 1 8.22197 -5.14289 5.09558 -3.02606 6 21.3921 5 
509 1 2.09148 -3.96443 10.1807 -2.96364 5 22.4022 5 
510 1 1.5634 -2.08667 8.62014 -3.8687 12 5.37813 5 
511 1 2.5121 -3.85176 7.01304 -3.89382 10 4.79697 5 
512 1 1.88017 -1.79556 5.98053 -4.06218 13 0.386243 5 
513 1 2.86336 -3.46401 4.34415 -4.14209 13 0.245497 3 
514 1 2.27633 -1.31399 3.10474 -3.84931 10 0.249967 3 
515 1 3.15968 -2.97884 1.56981 -4.09302 12 0.319019 3 
516 1 2.60753 -0.997623 0.360476 -4.05151 12 0.144882 3 
517 1 3.68335 -2.52734 -1.29074 -3.98389 10 0.253609 3 
518 1 3.22944 -0.586224 -2.58668 -4.04452 11 0.23825 5 
519 1 4.20381 -2.31402 -4.18136 -4.03077 12 0.176467 3 
520 1 3.59954 -0.309552 -5.41034 -4.0552 12 0.0915082 3 
521 1 4.46805 -1.95715 -6.85866 -3.96575 10 0.69079 5 
522 1 3.95721 0.0990406 -8.18989 -3.92753 12 0.718052 5 
523 1 5.02019 -1.64961 -9.84752 -3.00783 5 23.7056 5 
524 1 7.23397 -3.53539 6.39393 -3.50351 9 10.258 5 
525 1 6.41077 -1.20453 -7.96014 -3.48754 9 8.39156 5 
526 1 7.39276 -2.94114 -6.85265 -3.34725 8 6.2158 5 
527 1 6.25078 -1.26106 -5.28604 -4.14705 14 4.26395 5 
528 1 6.76844 -3.3742 -3.63804 -3.93439 11 4.57547 5 
529 1 5.77282 -1.57102 -2.48965 -4.10091 11 0.767945 3 
530 1 6.52986 -3.51093 -1.00564 -3.96682 12 4.33007 3 
531 1 5.28043 -2.15082 0.359674 -4.04113 11 5.29633 5 
532 1 5.95647 -3.98849 1.94031 -3.91379 11 4.38058 5 
533 1 4.92597 -2.53897 3.19095 -3.88886 11 1.27411 5 
534 1 5.6008 -4.3642 4.81449 -4.04833 10 4.86415 5 
535 1 4.49732 -2.70938 6.19946 -4.0518 12 0.314813 5 
536 1 5.268 -4.84778 7.64898 -3.43487 7 6.49688 5 
537 1 3.9516 -2.85854 9.09569 -3.52253 9 9.32789 5 
ITEM: TIMESTEP
100
ITEM: NUMBER OF ATOMS
537
ITEM: BOX BOUNDS pp pp pp
-200.487 200.487
-200.487 200.487
-200.487 200.487
ITEM: ATOMS id type x y z c_eng c_cn c_cnt c_cna 
1 1 0.508055 2.91305 -9.80591 -3.49562 7 11.5935 5 
2 1 -0.667969 4.79501 -8.14585 -3.7439 9 8.3067 5 
3 1 0.112481 2.63939 -6.90251 -3.88186 12 4.95914 5 
4 1 -1.02404 4.204 -5.30909 -3.9727 11 0.603739 3 
5 1 -0.171556 2.28695 -4.16504 -4.05755 13 5.23496 3 
6 1 -1.43978 4.00746 -2.60353 -4.08784 13 0.586513 3 
7 1 -0.526194 1.96944 -1.36876 -3.98537 11 0.498063 5 
8 1 -1.79041 3.61138 0.0322836 -4.00768 11 0.399173 5 
9 1 -1.16238 1.73086 1.47961 -4.10518 10 0.965351 5 
10 1 -2.05303 3.29215 3.06728 -4.02098 11 0.535479 5 
11 1 -1.54008 1.28509 4.3422 -4.118 10 0.241969 5 
12 1 -2.5323 2.96957 5.82868 -4.06726 12 0.239037 5 